[Molden Format]

[Atoms] AU
O 	 1 	  8 	 0.000000 	 -0.143226 	 0.000000
H 	 2 	  1 	 1.638037 	 1.136549 	 -0.000000
H 	 3 	  1 	 -1.638037 	 1.136549 	 -0.000000
[GTO]
