[Molden Format]

[Atoms] AU
O 	 1 	  8 	 0.000000 	 -0.143226 	 0.000000
H 	 2 	  1 	 1.638037 	 1.136549 	 -0.000000
H 	 3 	  1 	 -1.638037 	 1.136549 	 -0.000000
[GTO]
1 	 0
s 	 3 	 1.00
			 130.709320 	 0.154329 
			 23.808861 	 0.535328 
			 6.443608 	 0.444635 
s 	 3 	 1.00
			 5.033151 	 -0.099967 
			 1.169596 	 0.399513 
			 0.380389 	 0.700115 
p 	 3 	 1.00
			 5.033151 	 0.155916 
			 1.169596 	 0.607684 
			 0.380389 	 0.391957 

2 	 0
s 	 3 	 1.00
			 3.425251 	 0.154329 
			 0.623914 	 0.535328 
			 0.168855 	 0.444635 

3 	 0
s 	 3 	 1.00
			 3.425251 	 0.154329 
			 0.623914 	 0.535328 
			 0.168855 	 0.444635 
[MO]
Sym=A
Ene=-20.262892
Spin=Alpha
Occup=2.000000
1 	 -0.9944345817864946 
2 	 -0.024097042019446145 
3 	 8.983286948117275e-17 
4 	 -0.0031615490521584044 
5 	 4.042001164298465e-34 
6 	 0.004593743518941339 
7 	 0.004593743518941338 
Sym=A
Ene=-1.209697
Spin=Alpha
Occup=2.000000
1 	 -0.23915884950452437 
2 	 0.8857355873913669 
3 	 7.694586976574278e-16 
4 	 0.08589620253964418 
5 	 1.2521026998794514e-32 
6 	 0.14403955370332494 
7 	 0.14403955370332483 
Sym=A
Ene=-0.547965
Spin=Alpha
Occup=2.000000
1 	 -1.253333871247779e-15 
2 	 6.217452720397719e-15 
3 	 -0.6072848404439579 
4 	 -9.38593614874103e-15 
5 	 -4.4408920551546437e-16 
6 	 -0.4529977361841343 
7 	 0.45299773618412664 
Sym=A
Ene=-0.436527
Spin=Alpha
Occup=2.000000
1 	 -0.09368324654364162 
2 	 0.4795858831333315 
3 	 6.759633713390158e-15 
4 	 -0.7474313852547004 
5 	 9.350674459243273e-30 
6 	 -0.3294711753759713 
7 	 -0.32947117537598186 
Sym=A
Ene=-0.387587
Spin=Alpha
Occup=2.000000
1 	 7.100889295018881e-31 
2 	 -3.673579494136898e-30 
3 	 -1.942412319997505e-16 
4 	 5.697770532049812e-30 
5 	 0.9999999902393525 
6 	 -1.571678050375942e-16 
7 	 1.5716780503759943e-16 
Sym=A
Ene=0.477619
Spin=Alpha
Occup=0.000000
1 	 -0.11163992577322707 
2 	 0.6695790733752394 
3 	 1.8990476487003844e-15 
4 	 0.7384885989693596 
5 	 6.627981124496493e-32 
6 	 -0.7098494986714738 
7 	 -0.7098494986714715 
Sym=A
Ene=0.588139
Spin=Alpha
Occup=0.000000
1 	 -2.3737129955334e-16 
2 	 1.1754388798778875e-15 
3 	 -0.9192342563244006 
4 	 7.06819138331655e-16 
5 	 2.315449657709263e-33 
6 	 0.7324606744003916 
7 	 -0.7324606744003935 
